# vtk DataFile Version 2.0
generated using OpenWalnut
ASCII
DATASET UNSTRUCTURED_GRID
POINTS 16 float
93.5 115.5 41.5
94.5 116.5 41
94.5 117.5 41.49206349206349
93.5 115.5 41.5
93.5 115.5 41.5
93.5 115.5 41.5
93.5 115.5 41.5
93.5 115.5 41.5
94.5 116.3888888888889 41.5
94.49601593625498 116.5 41.5
94.52564102564102 116.5 41.5
94.5 116.5 41.53225806451613
94.49206349206349 117.5 41.5
94.55882352941177 117.5 41.5
94.5 117.5079365079365 41.5
94.5 117.5 41.58695652173913
CELLS 28 112
3 0 4 3
3 0 3 5
3 4 0 6
3 5 8 1
3 5 1 0
3 9 6 1
3 6 0 1
3 1 8 10
3 1 2 12
3 9 1 12
3 2 1 10
3 13 2 10
3 12 2 14
3 14 2 13
3 4 7 3
3 3 7 5
3 4 6 7
3 8 5 7
3 8 7 11
3 6 9 7
3 9 11 7
3 8 11 10
3 9 12 15
3 11 9 15
3 13 10 11
3 15 13 11
3 12 14 15
3 14 13 15
CELL_TYPES 28
5
5
5
5
5
5
5
5
5
5
5
5
5
5
5
5
5
5
5
5
5
5
5
5
5
5
5
5
POINT_DATA 16
SCALARS scalars float
LOOKUP_TABLE default
0
0
0
0
0
0
0
0
0
0
0
0
0
0
0
0
