# vtk DataFile Version 3.0
vtk output
ASCII
DATASET POLYDATA
POINT_DATA 8
TENSORS tensors float
3 0 0 0 0.5 0 0 0 1
0 0 0 0 0 0 0 0 0
0 0 0 0 0 0 0 0 0
0 0 0 0 0 0 0 0 0
0 0 0 0 0 0 0 0 0
0 0 0 0 0 0 0 0 0
0 0 0 0 0 0 0 0 0
0 0 0 0 0 0 0 0 0
